<?xml version="1.0" encoding="UTF-8"?>

<!-- generated on 2023-12-06 13:27:58 by Eclipse SUMO GUI Version 1.19.0
<configuration xmlns:xsi="http://www.w3.org/2001/XMLSchema-instance" xsi:noNamespaceSchemaLocation="http://sumo.dlr.de/xsd/sumoConfiguration.xsd">

    <input>
        <net-file value="sumo/cross.net.xml"/>
        <route-files value="sumo/cross.rou.xml"/>
        <additional-files value="sumo/default_logic.add.xml,sumo/detectors.add.xml"/>
    </input>

    <output>
        <tripinfo-output value="sumo/live_stats.xml"/>
        <tripinfo-output.write-unfinished value="false"/>
    </output>

    <time>
        <begin value="0"/>
    </time>

    <report>
        <verbose value="false"/>
        <no-warnings value="true"/>
        <duration-log.statistics value="true"/>
        <no-step-log value="true"/>
    </report>

    <random_number>
        <random value="true"/>
    </random_number>

</configuration>
-->

<detector xmlns:xsi="http://www.w3.org/2001/XMLSchema-instance" xsi:noNamespaceSchemaLocation="http://sumo.dlr.de/xsd/det_e1_file.xsd">
    <interval begin="0.00" end="197.00" id="loop_east" nVehContrib="10" flow="182.74" occupancy="28.50" speed="3.68" harmonicMeanSpeed="0.89" length="5.00" nVehEntered="10"/>
    <interval begin="0.00" end="197.00" id="loop_north" nVehContrib="10" flow="182.74" occupancy="31.34" speed="5.97" harmonicMeanSpeed="0.81" length="5.00" nVehEntered="10"/>
    <interval begin="0.00" end="197.00" id="loop_south" nVehContrib="10" flow="182.74" occupancy="32.66" speed="3.59" harmonicMeanSpeed="0.78" length="5.00" nVehEntered="10"/>
    <interval begin="0.00" end="197.00" id="loop_west" nVehContrib="10" flow="182.74" occupancy="28.34" speed="3.78" harmonicMeanSpeed="0.90" length="5.00" nVehEntered="10"/>
</detector>
