<?xml version="1.0" encoding="UTF-8"?>

<!-- generated on 2023-12-07 17:42:36 by Eclipse SUMO libsumo Version 1.19.0
<configuration xmlns:xsi="http://www.w3.org/2001/XMLSchema-instance" xsi:noNamespaceSchemaLocation="http://sumo.dlr.de/xsd/libsumoConfiguration.xsd">

    <input>
        <net-file value="sumo/cross.net.xml"/>
        <route-files value="sumo/cross.rou.xml"/>
        <additional-files value="sumo/default_logic.add.xml,sumo/detectors.add.xml"/>
    </input>

    <output>
        <tripinfo-output.write-unfinished value="false"/>
    </output>

    <time>
        <begin value="0"/>
    </time>

    <report>
        <verbose value="false"/>
        <no-warnings value="true"/>
        <duration-log.statistics value="false"/>
        <no-step-log value="true"/>
    </report>

    <random_number>
        <random value="true"/>
    </random_number>

</configuration>
-->

<detector xmlns:xsi="http://www.w3.org/2001/XMLSchema-instance" xsi:noNamespaceSchemaLocation="http://sumo.dlr.de/xsd/det_e1_file.xsd">
    <interval begin="0.00" end="200.00" id="loop_east" nVehContrib="10" flow="180.00" occupancy="18.68" speed="9.44" harmonicMeanSpeed="1.34" length="5.00" nVehEntered="10"/>
    <interval begin="0.00" end="200.00" id="loop_north" nVehContrib="10" flow="180.00" occupancy="46.57" speed="4.52" harmonicMeanSpeed="0.54" length="5.00" nVehEntered="10"/>
    <interval begin="0.00" end="200.00" id="loop_south" nVehContrib="10" flow="180.00" occupancy="45.73" speed="4.89" harmonicMeanSpeed="0.55" length="5.00" nVehEntered="10"/>
    <interval begin="0.00" end="200.00" id="loop_west" nVehContrib="10" flow="180.00" occupancy="18.91" speed="10.19" harmonicMeanSpeed="1.32" length="5.00" nVehEntered="10"/>
</detector>
