<?xml version="1.0" encoding="UTF-8"?>

<!-- generated on 2023-12-19 00:19:33 by Eclipse SUMO libsumo Version 1.19.0
<configuration xmlns:xsi="http://www.w3.org/2001/XMLSchema-instance" xsi:noNamespaceSchemaLocation="http://sumo.dlr.de/xsd/libsumoConfiguration.xsd">

    <input>
        <net-file value="sumo/grid/grid.net.xml"/>
        <route-files value="sumo/grid/grid.rou.xml"/>
        <additional-files value="sumo/grid/detectors.add.xml"/>
    </input>

    <report>
        <verbose value="false"/>
        <no-warnings value="true"/>
        <no-step-log value="true"/>
    </report>

    <random_number>
        <seed value="17"/>
    </random_number>

</configuration>
-->

<detector xmlns:xsi="http://www.w3.org/2001/XMLSchema-instance" xsi:noNamespaceSchemaLocation="http://sumo.dlr.de/xsd/det_e1_file.xsd">
</detector>
