<?xml version="1.0" encoding="UTF-8"?>

<!-- generated on 2023-12-13 09:07:37 by Eclipse SUMO GUI Version 1.19.0
<configuration xmlns:xsi="http://www.w3.org/2001/XMLSchema-instance" xsi:noNamespaceSchemaLocation="http://sumo.dlr.de/xsd/sumoConfiguration.xsd">

    <input>
        <net-file value="sumo/cross/cross.net.xml"/>
        <route-files value="sumo/cross/cross.rou.xml"/>
        <additional-files value="sumo/cross/default_logic.add.xml,sumo/cross/detectors.add.xml"/>
    </input>

    <output>
        <tripinfo-output.write-unfinished value="false"/>
    </output>

    <time>
        <begin value="0"/>
    </time>

    <report>
        <verbose value="false"/>
        <no-warnings value="true"/>
        <duration-log.statistics value="false"/>
        <no-step-log value="true"/>
    </report>

    <random_number>
        <random value="true"/>
    </random_number>

</configuration>
-->

<detector xmlns:xsi="http://www.w3.org/2001/XMLSchema-instance" xsi:noNamespaceSchemaLocation="http://sumo.dlr.de/xsd/det_e1_file.xsd">
    <interval begin="0.00" end="10.00" id="loop_east" nVehContrib="0" flow="0.00" occupancy="0.00" speed="-1.00" harmonicMeanSpeed="-1.00" length="-1.00" nVehEntered="0"/>
    <interval begin="0.00" end="10.00" id="loop_north" nVehContrib="0" flow="0.00" occupancy="0.00" speed="-1.00" harmonicMeanSpeed="-1.00" length="-1.00" nVehEntered="0"/>
    <interval begin="0.00" end="10.00" id="loop_south" nVehContrib="0" flow="0.00" occupancy="0.00" speed="-1.00" harmonicMeanSpeed="-1.00" length="-1.00" nVehEntered="0"/>
    <interval begin="0.00" end="10.00" id="loop_west" nVehContrib="0" flow="0.00" occupancy="0.00" speed="-1.00" harmonicMeanSpeed="-1.00" length="-1.00" nVehEntered="0"/>
    <interval begin="10.00" end="20.00" id="loop_east" nVehContrib="0" flow="0.00" occupancy="0.00" speed="-1.00" harmonicMeanSpeed="-1.00" length="-1.00" nVehEntered="0"/>
    <interval begin="10.00" end="20.00" id="loop_north" nVehContrib="0" flow="0.00" occupancy="0.00" speed="-1.00" harmonicMeanSpeed="-1.00" length="-1.00" nVehEntered="0"/>
    <interval begin="10.00" end="20.00" id="loop_south" nVehContrib="0" flow="0.00" occupancy="0.00" speed="-1.00" harmonicMeanSpeed="-1.00" length="-1.00" nVehEntered="0"/>
    <interval begin="10.00" end="20.00" id="loop_west" nVehContrib="0" flow="0.00" occupancy="0.00" speed="-1.00" harmonicMeanSpeed="-1.00" length="-1.00" nVehEntered="0"/>
    <interval begin="20.00" end="30.00" id="loop_east" nVehContrib="0" flow="0.00" occupancy="0.00" speed="-1.00" harmonicMeanSpeed="-1.00" length="-1.00" nVehEntered="0"/>
    <interval begin="20.00" end="30.00" id="loop_north" nVehContrib="0" flow="0.00" occupancy="0.00" speed="-1.00" harmonicMeanSpeed="-1.00" length="-1.00" nVehEntered="0"/>
    <interval begin="20.00" end="30.00" id="loop_south" nVehContrib="0" flow="0.00" occupancy="0.00" speed="-1.00" harmonicMeanSpeed="-1.00" length="-1.00" nVehEntered="0"/>
    <interval begin="20.00" end="30.00" id="loop_west" nVehContrib="0" flow="0.00" occupancy="0.00" speed="-1.00" harmonicMeanSpeed="-1.00" length="-1.00" nVehEntered="0"/>
    <interval begin="30.00" end="40.00" id="loop_east" nVehContrib="0" flow="0.00" occupancy="0.00" speed="-1.00" harmonicMeanSpeed="-1.00" length="-1.00" nVehEntered="0"/>
    <interval begin="30.00" end="40.00" id="loop_north" nVehContrib="0" flow="0.00" occupancy="0.00" speed="-1.00" harmonicMeanSpeed="-1.00" length="-1.00" nVehEntered="0"/>
    <interval begin="30.00" end="40.00" id="loop_south" nVehContrib="0" flow="0.00" occupancy="0.00" speed="-1.00" harmonicMeanSpeed="-1.00" length="-1.00" nVehEntered="0"/>
    <interval begin="30.00" end="40.00" id="loop_west" nVehContrib="0" flow="0.00" occupancy="0.00" speed="-1.00" harmonicMeanSpeed="-1.00" length="-1.00" nVehEntered="0"/>
    <interval begin="40.00" end="50.00" id="loop_east" nVehContrib="0" flow="0.00" occupancy="14.00" speed="-1.00" harmonicMeanSpeed="-1.00" length="-1.00" nVehEntered="1"/>
    <interval begin="40.00" end="50.00" id="loop_north" nVehContrib="1" flow="360.00" occupancy="3.32" speed="15.04" harmonicMeanSpeed="15.04" length="5.00" nVehEntered="1"/>
    <interval begin="40.00" end="50.00" id="loop_south" nVehContrib="1" flow="360.00" occupancy="3.70" speed="13.50" harmonicMeanSpeed="13.50" length="5.00" nVehEntered="1"/>
    <interval begin="40.00" end="50.00" id="loop_west" nVehContrib="0" flow="0.00" occupancy="9.14" speed="-1.00" harmonicMeanSpeed="-1.00" length="-1.00" nVehEntered="1"/>
    <interval begin="50.00" end="60.00" id="loop_east" nVehContrib="1" flow="360.00" occupancy="87.26" speed="0.49" harmonicMeanSpeed="0.49" length="5.00" nVehEntered="0"/>
    <interval begin="50.00" end="60.00" id="loop_north" nVehContrib="0" flow="0.00" occupancy="0.00" speed="-1.00" harmonicMeanSpeed="-1.00" length="-1.00" nVehEntered="0"/>
    <interval begin="50.00" end="60.00" id="loop_south" nVehContrib="1" flow="360.00" occupancy="22.31" speed="14.65" harmonicMeanSpeed="14.65" length="5.00" nVehEntered="2"/>
    <interval begin="50.00" end="60.00" id="loop_west" nVehContrib="1" flow="360.00" occupancy="85.78" speed="0.53" harmonicMeanSpeed="0.53" length="5.00" nVehEntered="0"/>
    <interval begin="60.00" end="70.00" id="loop_east" nVehContrib="3" flow="1080.00" occupancy="39.11" speed="4.06" harmonicMeanSpeed="3.84" length="5.00" nVehEntered="3"/>
    <interval begin="60.00" end="70.00" id="loop_north" nVehContrib="0" flow="0.00" occupancy="51.55" speed="-1.00" harmonicMeanSpeed="-1.00" length="-1.00" nVehEntered="1"/>
    <interval begin="60.00" end="70.00" id="loop_south" nVehContrib="0" flow="0.00" occupancy="100.00" speed="-1.00" harmonicMeanSpeed="-1.00" length="-1.00" nVehEntered="0"/>
    <interval begin="60.00" end="70.00" id="loop_west" nVehContrib="3" flow="1080.00" occupancy="39.27" speed="3.97" harmonicMeanSpeed="3.82" length="5.00" nVehEntered="3"/>
    <interval begin="70.00" end="80.00" id="loop_east" nVehContrib="2" flow="720.00" occupancy="9.14" speed="11.66" harmonicMeanSpeed="10.94" length="5.00" nVehEntered="2"/>
    <interval begin="70.00" end="80.00" id="loop_north" nVehContrib="0" flow="0.00" occupancy="100.00" speed="-1.00" harmonicMeanSpeed="-1.00" length="-1.00" nVehEntered="0"/>
    <interval begin="70.00" end="80.00" id="loop_south" nVehContrib="0" flow="0.00" occupancy="100.00" speed="-1.00" harmonicMeanSpeed="-1.00" length="-1.00" nVehEntered="0"/>
    <interval begin="70.00" end="80.00" id="loop_west" nVehContrib="3" flow="1080.00" occupancy="14.01" speed="11.21" harmonicMeanSpeed="10.70" length="5.00" nVehEntered="3"/>
    <interval begin="80.00" end="90.00" id="loop_east" nVehContrib="2" flow="720.00" occupancy="10.10" speed="10.01" harmonicMeanSpeed="9.90" length="5.00" nVehEntered="2"/>
    <interval begin="80.00" end="90.00" id="loop_north" nVehContrib="0" flow="0.00" occupancy="100.00" speed="-1.00" harmonicMeanSpeed="-1.00" length="-1.00" nVehEntered="0"/>
    <interval begin="80.00" end="90.00" id="loop_south" nVehContrib="0" flow="0.00" occupancy="100.00" speed="-1.00" harmonicMeanSpeed="-1.00" length="-1.00" nVehEntered="0"/>
    <interval begin="80.00" end="90.00" id="loop_west" nVehContrib="2" flow="720.00" occupancy="7.03" speed="14.30" harmonicMeanSpeed="14.22" length="5.00" nVehEntered="2"/>
    <interval begin="90.00" end="100.00" id="loop_east" nVehContrib="0" flow="0.00" occupancy="85.21" speed="-1.00" harmonicMeanSpeed="-1.00" length="-1.00" nVehEntered="1"/>
    <interval begin="90.00" end="100.00" id="loop_north" nVehContrib="1" flow="360.00" occupancy="76.67" speed="0.16" harmonicMeanSpeed="0.16" length="5.00" nVehEntered="1"/>
    <interval begin="90.00" end="100.00" id="loop_south" nVehContrib="2" flow="720.00" occupancy="72.84" speed="1.58" harmonicMeanSpeed="0.26" length="5.00" nVehEntered="1"/>
    <interval begin="90.00" end="100.00" id="loop_west" nVehContrib="0" flow="0.00" occupancy="64.86" speed="-1.00" harmonicMeanSpeed="-1.00" length="-1.00" nVehEntered="1"/>
    <interval begin="100.00" end="110.00" id="loop_east" nVehContrib="1" flow="360.00" occupancy="73.18" speed="0.32" harmonicMeanSpeed="0.32" length="5.00" nVehEntered="1"/>
    <interval begin="100.00" end="110.00" id="loop_north" nVehContrib="1" flow="360.00" occupancy="80.36" speed="2.64" harmonicMeanSpeed="2.64" length="5.00" nVehEntered="1"/>
    <interval begin="100.00" end="110.00" id="loop_south" nVehContrib="0" flow="0.00" occupancy="86.03" speed="-1.00" harmonicMeanSpeed="-1.00" length="-1.00" nVehEntered="1"/>
    <interval begin="100.00" end="110.00" id="loop_west" nVehContrib="1" flow="360.00" occupancy="67.78" speed="0.38" harmonicMeanSpeed="0.38" length="5.00" nVehEntered="0"/>
    <interval begin="110.00" end="120.00" id="loop_east" nVehContrib="1" flow="360.00" occupancy="12.67" speed="2.93" harmonicMeanSpeed="2.93" length="5.00" nVehEntered="0"/>
    <interval begin="110.00" end="120.00" id="loop_north" nVehContrib="0" flow="0.00" occupancy="100.00" speed="-1.00" harmonicMeanSpeed="-1.00" length="-1.00" nVehEntered="0"/>
    <interval begin="110.00" end="120.00" id="loop_south" nVehContrib="0" flow="0.00" occupancy="100.00" speed="-1.00" harmonicMeanSpeed="-1.00" length="-1.00" nVehEntered="0"/>
    <interval begin="110.00" end="120.00" id="loop_west" nVehContrib="0" flow="0.00" occupancy="0.00" speed="-1.00" harmonicMeanSpeed="-1.00" length="-1.00" nVehEntered="0"/>
    <interval begin="120.00" end="130.00" id="loop_east" nVehContrib="0" flow="0.00" occupancy="0.00" speed="-1.00" harmonicMeanSpeed="-1.00" length="-1.00" nVehEntered="0"/>
    <interval begin="120.00" end="130.00" id="loop_north" nVehContrib="3" flow="1080.00" occupancy="40.27" speed="2.53" harmonicMeanSpeed="0.72" length="5.00" nVehEntered="3"/>
    <interval begin="120.00" end="130.00" id="loop_south" nVehContrib="3" flow="1080.00" occupancy="39.65" speed="2.53" harmonicMeanSpeed="0.67" length="5.00" nVehEntered="3"/>
    <interval begin="120.00" end="130.00" id="loop_west" nVehContrib="0" flow="0.00" occupancy="0.00" speed="-1.00" harmonicMeanSpeed="-1.00" length="-1.00" nVehEntered="0"/>
    <interval begin="130.00" end="140.00" id="loop_east" nVehContrib="0" flow="0.00" occupancy="0.00" speed="-1.00" harmonicMeanSpeed="-1.00" length="-1.00" nVehEntered="0"/>
    <interval begin="130.00" end="140.00" id="loop_north" nVehContrib="4" flow="1440.00" occupancy="26.18" speed="6.15" harmonicMeanSpeed="6.08" length="5.00" nVehEntered="3"/>
    <interval begin="130.00" end="140.00" id="loop_south" nVehContrib="3" flow="1080.00" occupancy="23.91" speed="5.76" harmonicMeanSpeed="5.72" length="5.00" nVehEntered="2"/>
    <interval begin="130.00" end="140.00" id="loop_west" nVehContrib="0" flow="0.00" occupancy="0.00" speed="-1.00" harmonicMeanSpeed="-1.00" length="-1.00" nVehEntered="0"/>
    <interval begin="140.00" end="150.00" id="loop_east" nVehContrib="0" flow="0.00" occupancy="0.00" speed="-1.00" harmonicMeanSpeed="-1.00" length="-1.00" nVehEntered="0"/>
    <interval begin="140.00" end="150.00" id="loop_north" nVehContrib="0" flow="0.00" occupancy="0.00" speed="-1.00" harmonicMeanSpeed="-1.00" length="-1.00" nVehEntered="0"/>
    <interval begin="140.00" end="150.00" id="loop_south" nVehContrib="0" flow="0.00" occupancy="0.00" speed="-1.00" harmonicMeanSpeed="-1.00" length="-1.00" nVehEntered="0"/>
    <interval begin="140.00" end="150.00" id="loop_west" nVehContrib="0" flow="0.00" occupancy="0.00" speed="-1.00" harmonicMeanSpeed="-1.00" length="-1.00" nVehEntered="0"/>
    <interval begin="150.00" end="160.00" id="loop_east" nVehContrib="0" flow="0.00" occupancy="0.00" speed="-1.00" harmonicMeanSpeed="-1.00" length="-1.00" nVehEntered="0"/>
    <interval begin="150.00" end="160.00" id="loop_north" nVehContrib="0" flow="0.00" occupancy="0.00" speed="-1.00" harmonicMeanSpeed="-1.00" length="-1.00" nVehEntered="0"/>
    <interval begin="150.00" end="160.00" id="loop_south" nVehContrib="0" flow="0.00" occupancy="0.00" speed="-1.00" harmonicMeanSpeed="-1.00" length="-1.00" nVehEntered="0"/>
    <interval begin="150.00" end="160.00" id="loop_west" nVehContrib="0" flow="0.00" occupancy="0.00" speed="-1.00" harmonicMeanSpeed="-1.00" length="-1.00" nVehEntered="0"/>
    <interval begin="160.00" end="170.00" id="loop_east" nVehContrib="0" flow="0.00" occupancy="0.00" speed="-1.00" harmonicMeanSpeed="-1.00" length="-1.00" nVehEntered="0"/>
    <interval begin="160.00" end="170.00" id="loop_north" nVehContrib="0" flow="0.00" occupancy="0.00" speed="-1.00" harmonicMeanSpeed="-1.00" length="-1.00" nVehEntered="0"/>
    <interval begin="160.00" end="170.00" id="loop_south" nVehContrib="0" flow="0.00" occupancy="0.00" speed="-1.00" harmonicMeanSpeed="-1.00" length="-1.00" nVehEntered="0"/>
    <interval begin="160.00" end="170.00" id="loop_west" nVehContrib="0" flow="0.00" occupancy="0.00" speed="-1.00" harmonicMeanSpeed="-1.00" length="-1.00" nVehEntered="0"/>
    <interval begin="170.00" end="180.00" id="loop_east" nVehContrib="0" flow="0.00" occupancy="0.00" speed="-1.00" harmonicMeanSpeed="-1.00" length="-1.00" nVehEntered="0"/>
    <interval begin="170.00" end="180.00" id="loop_north" nVehContrib="0" flow="0.00" occupancy="0.00" speed="-1.00" harmonicMeanSpeed="-1.00" length="-1.00" nVehEntered="0"/>
    <interval begin="170.00" end="180.00" id="loop_south" nVehContrib="0" flow="0.00" occupancy="0.00" speed="-1.00" harmonicMeanSpeed="-1.00" length="-1.00" nVehEntered="0"/>
    <interval begin="170.00" end="180.00" id="loop_west" nVehContrib="0" flow="0.00" occupancy="0.00" speed="-1.00" harmonicMeanSpeed="-1.00" length="-1.00" nVehEntered="0"/>
    <interval begin="180.00" end="190.00" id="loop_east" nVehContrib="0" flow="0.00" occupancy="0.00" speed="-1.00" harmonicMeanSpeed="-1.00" length="-1.00" nVehEntered="0"/>
    <interval begin="180.00" end="190.00" id="loop_north" nVehContrib="0" flow="0.00" occupancy="0.00" speed="-1.00" harmonicMeanSpeed="-1.00" length="-1.00" nVehEntered="0"/>
    <interval begin="180.00" end="190.00" id="loop_south" nVehContrib="0" flow="0.00" occupancy="0.00" speed="-1.00" harmonicMeanSpeed="-1.00" length="-1.00" nVehEntered="0"/>
    <interval begin="180.00" end="190.00" id="loop_west" nVehContrib="0" flow="0.00" occupancy="0.00" speed="-1.00" harmonicMeanSpeed="-1.00" length="-1.00" nVehEntered="0"/>
    <interval begin="190.00" end="200.00" id="loop_east" nVehContrib="0" flow="0.00" occupancy="0.00" speed="-1.00" harmonicMeanSpeed="-1.00" length="-1.00" nVehEntered="0"/>
    <interval begin="190.00" end="200.00" id="loop_north" nVehContrib="0" flow="0.00" occupancy="0.00" speed="-1.00" harmonicMeanSpeed="-1.00" length="-1.00" nVehEntered="0"/>
    <interval begin="190.00" end="200.00" id="loop_south" nVehContrib="0" flow="0.00" occupancy="0.00" speed="-1.00" harmonicMeanSpeed="-1.00" length="-1.00" nVehEntered="0"/>
    <interval begin="190.00" end="200.00" id="loop_west" nVehContrib="0" flow="0.00" occupancy="0.00" speed="-1.00" harmonicMeanSpeed="-1.00" length="-1.00" nVehEntered="0"/>
</detector>
