<?xml version="1.0" encoding="UTF-8"?>

<!-- generated on 2023-12-12 23:26:40 by Eclipse SUMO GUI Version 1.19.0
<configuration xmlns:xsi="http://www.w3.org/2001/XMLSchema-instance" xsi:noNamespaceSchemaLocation="http://sumo.dlr.de/xsd/sumoConfiguration.xsd">

    <input>
        <net-file value="sumo/cross/cross.net.xml"/>
        <route-files value="sumo/cross/cross.rou.xml"/>
        <additional-files value="sumo/cross/default_logic.add.xml,sumo/cross/detectors.add.xml"/>
    </input>

    <output>
        <tripinfo-output.write-unfinished value="false"/>
    </output>

    <time>
        <begin value="0"/>
    </time>

    <report>
        <verbose value="false"/>
        <no-warnings value="true"/>
        <duration-log.statistics value="false"/>
        <no-step-log value="true"/>
    </report>

    <random_number>
        <random value="true"/>
    </random_number>

</configuration>
-->

<detector xmlns:xsi="http://www.w3.org/2001/XMLSchema-instance" xsi:noNamespaceSchemaLocation="http://sumo.dlr.de/xsd/det_e1_file.xsd">
    <interval begin="0.00" end="10.00" id="loop_east" nVehContrib="0" flow="0.00" occupancy="0.00" speed="-1.00" harmonicMeanSpeed="-1.00" length="-1.00" nVehEntered="0"/>
    <interval begin="0.00" end="10.00" id="loop_north" nVehContrib="0" flow="0.00" occupancy="0.00" speed="-1.00" harmonicMeanSpeed="-1.00" length="-1.00" nVehEntered="0"/>
    <interval begin="0.00" end="10.00" id="loop_south" nVehContrib="0" flow="0.00" occupancy="0.00" speed="-1.00" harmonicMeanSpeed="-1.00" length="-1.00" nVehEntered="0"/>
    <interval begin="0.00" end="10.00" id="loop_west" nVehContrib="0" flow="0.00" occupancy="0.00" speed="-1.00" harmonicMeanSpeed="-1.00" length="-1.00" nVehEntered="0"/>
    <interval begin="10.00" end="20.00" id="loop_east" nVehContrib="0" flow="0.00" occupancy="0.00" speed="-1.00" harmonicMeanSpeed="-1.00" length="-1.00" nVehEntered="0"/>
    <interval begin="10.00" end="20.00" id="loop_north" nVehContrib="0" flow="0.00" occupancy="0.00" speed="-1.00" harmonicMeanSpeed="-1.00" length="-1.00" nVehEntered="0"/>
    <interval begin="10.00" end="20.00" id="loop_south" nVehContrib="0" flow="0.00" occupancy="0.00" speed="-1.00" harmonicMeanSpeed="-1.00" length="-1.00" nVehEntered="0"/>
    <interval begin="10.00" end="20.00" id="loop_west" nVehContrib="0" flow="0.00" occupancy="0.00" speed="-1.00" harmonicMeanSpeed="-1.00" length="-1.00" nVehEntered="0"/>
    <interval begin="20.00" end="30.00" id="loop_east" nVehContrib="0" flow="0.00" occupancy="0.00" speed="-1.00" harmonicMeanSpeed="-1.00" length="-1.00" nVehEntered="0"/>
    <interval begin="20.00" end="30.00" id="loop_north" nVehContrib="0" flow="0.00" occupancy="0.00" speed="-1.00" harmonicMeanSpeed="-1.00" length="-1.00" nVehEntered="0"/>
    <interval begin="20.00" end="30.00" id="loop_south" nVehContrib="0" flow="0.00" occupancy="0.00" speed="-1.00" harmonicMeanSpeed="-1.00" length="-1.00" nVehEntered="0"/>
    <interval begin="20.00" end="30.00" id="loop_west" nVehContrib="0" flow="0.00" occupancy="0.00" speed="-1.00" harmonicMeanSpeed="-1.00" length="-1.00" nVehEntered="0"/>
    <interval begin="30.00" end="40.00" id="loop_east" nVehContrib="0" flow="0.00" occupancy="0.00" speed="-1.00" harmonicMeanSpeed="-1.00" length="-1.00" nVehEntered="0"/>
    <interval begin="30.00" end="40.00" id="loop_north" nVehContrib="0" flow="0.00" occupancy="0.00" speed="-1.00" harmonicMeanSpeed="-1.00" length="-1.00" nVehEntered="0"/>
    <interval begin="30.00" end="40.00" id="loop_south" nVehContrib="0" flow="0.00" occupancy="0.00" speed="-1.00" harmonicMeanSpeed="-1.00" length="-1.00" nVehEntered="0"/>
    <interval begin="30.00" end="40.00" id="loop_west" nVehContrib="0" flow="0.00" occupancy="0.00" speed="-1.00" harmonicMeanSpeed="-1.00" length="-1.00" nVehEntered="0"/>
    <interval begin="40.00" end="50.00" id="loop_east" nVehContrib="1" flow="360.00" occupancy="3.74" speed="13.35" harmonicMeanSpeed="13.35" length="5.00" nVehEntered="1"/>
    <interval begin="40.00" end="50.00" id="loop_north" nVehContrib="0" flow="0.00" occupancy="31.95" speed="-1.00" harmonicMeanSpeed="-1.00" length="-1.00" nVehEntered="1"/>
    <interval begin="40.00" end="50.00" id="loop_south" nVehContrib="0" flow="0.00" occupancy="0.00" speed="-1.00" harmonicMeanSpeed="-1.00" length="-1.00" nVehEntered="0"/>
    <interval begin="40.00" end="50.00" id="loop_west" nVehContrib="1" flow="360.00" occupancy="3.89" speed="12.86" harmonicMeanSpeed="12.86" length="5.00" nVehEntered="1"/>
    <interval begin="50.00" end="60.00" id="loop_east" nVehContrib="0" flow="0.00" occupancy="26.35" speed="-1.00" harmonicMeanSpeed="-1.00" length="-1.00" nVehEntered="1"/>
    <interval begin="50.00" end="60.00" id="loop_north" nVehContrib="1" flow="360.00" occupancy="80.68" speed="0.44" harmonicMeanSpeed="0.44" length="5.00" nVehEntered="0"/>
    <interval begin="50.00" end="60.00" id="loop_south" nVehContrib="1" flow="360.00" occupancy="69.00" speed="0.72" harmonicMeanSpeed="0.72" length="5.00" nVehEntered="1"/>
    <interval begin="50.00" end="60.00" id="loop_west" nVehContrib="0" flow="0.00" occupancy="19.77" speed="-1.00" harmonicMeanSpeed="-1.00" length="-1.00" nVehEntered="1"/>
    <interval begin="60.00" end="70.00" id="loop_east" nVehContrib="0" flow="0.00" occupancy="100.00" speed="-1.00" harmonicMeanSpeed="-1.00" length="-1.00" nVehEntered="0"/>
    <interval begin="60.00" end="70.00" id="loop_north" nVehContrib="4" flow="1440.00" occupancy="45.68" speed="4.72" harmonicMeanSpeed="4.38" length="5.00" nVehEntered="4"/>
    <interval begin="60.00" end="70.00" id="loop_south" nVehContrib="3" flow="1080.00" occupancy="35.34" speed="4.89" harmonicMeanSpeed="4.24" length="5.00" nVehEntered="3"/>
    <interval begin="60.00" end="70.00" id="loop_west" nVehContrib="0" flow="0.00" occupancy="100.00" speed="-1.00" harmonicMeanSpeed="-1.00" length="-1.00" nVehEntered="0"/>
    <interval begin="70.00" end="80.00" id="loop_east" nVehContrib="0" flow="0.00" occupancy="100.00" speed="-1.00" harmonicMeanSpeed="-1.00" length="-1.00" nVehEntered="0"/>
    <interval begin="70.00" end="80.00" id="loop_north" nVehContrib="2" flow="720.00" occupancy="9.53" speed="11.20" harmonicMeanSpeed="10.50" length="5.00" nVehEntered="2"/>
    <interval begin="70.00" end="80.00" id="loop_south" nVehContrib="2" flow="720.00" occupancy="6.90" speed="14.54" harmonicMeanSpeed="14.49" length="5.00" nVehEntered="2"/>
    <interval begin="70.00" end="80.00" id="loop_west" nVehContrib="0" flow="0.00" occupancy="100.00" speed="-1.00" harmonicMeanSpeed="-1.00" length="-1.00" nVehEntered="0"/>
    <interval begin="80.00" end="90.00" id="loop_east" nVehContrib="0" flow="0.00" occupancy="100.00" speed="-1.00" harmonicMeanSpeed="-1.00" length="-1.00" nVehEntered="0"/>
    <interval begin="80.00" end="90.00" id="loop_north" nVehContrib="1" flow="360.00" occupancy="20.93" speed="12.69" harmonicMeanSpeed="12.69" length="5.00" nVehEntered="2"/>
    <interval begin="80.00" end="90.00" id="loop_south" nVehContrib="0" flow="0.00" occupancy="53.77" speed="-1.00" harmonicMeanSpeed="-1.00" length="-1.00" nVehEntered="1"/>
    <interval begin="80.00" end="90.00" id="loop_west" nVehContrib="0" flow="0.00" occupancy="100.00" speed="-1.00" harmonicMeanSpeed="-1.00" length="-1.00" nVehEntered="0"/>
    <interval begin="90.00" end="100.00" id="loop_east" nVehContrib="0" flow="0.00" occupancy="100.00" speed="-1.00" harmonicMeanSpeed="-1.00" length="-1.00" nVehEntered="0"/>
    <interval begin="90.00" end="100.00" id="loop_north" nVehContrib="1" flow="360.00" occupancy="40.61" speed="0.87" harmonicMeanSpeed="0.87" length="5.00" nVehEntered="0"/>
    <interval begin="90.00" end="100.00" id="loop_south" nVehContrib="2" flow="720.00" occupancy="57.84" speed="1.75" harmonicMeanSpeed="0.90" length="5.00" nVehEntered="2"/>
    <interval begin="90.00" end="100.00" id="loop_west" nVehContrib="0" flow="0.00" occupancy="100.00" speed="-1.00" harmonicMeanSpeed="-1.00" length="-1.00" nVehEntered="0"/>
    <interval begin="100.00" end="110.00" id="loop_east" nVehContrib="0" flow="0.00" occupancy="100.00" speed="-1.00" harmonicMeanSpeed="-1.00" length="-1.00" nVehEntered="0"/>
    <interval begin="100.00" end="110.00" id="loop_north" nVehContrib="1" flow="360.00" occupancy="3.55" speed="14.08" harmonicMeanSpeed="14.08" length="5.00" nVehEntered="1"/>
    <interval begin="100.00" end="110.00" id="loop_south" nVehContrib="2" flow="720.00" occupancy="13.85" speed="7.99" harmonicMeanSpeed="6.86" length="5.00" nVehEntered="1"/>
    <interval begin="100.00" end="110.00" id="loop_west" nVehContrib="0" flow="0.00" occupancy="100.00" speed="-1.00" harmonicMeanSpeed="-1.00" length="-1.00" nVehEntered="0"/>
    <interval begin="110.00" end="120.00" id="loop_east" nVehContrib="1" flow="360.00" occupancy="82.40" speed="0.08" harmonicMeanSpeed="0.08" length="5.00" nVehEntered="0"/>
    <interval begin="110.00" end="120.00" id="loop_north" nVehContrib="0" flow="0.00" occupancy="0.00" speed="-1.00" harmonicMeanSpeed="-1.00" length="-1.00" nVehEntered="0"/>
    <interval begin="110.00" end="120.00" id="loop_south" nVehContrib="0" flow="0.00" occupancy="0.00" speed="-1.00" harmonicMeanSpeed="-1.00" length="-1.00" nVehEntered="0"/>
    <interval begin="110.00" end="120.00" id="loop_west" nVehContrib="1" flow="360.00" occupancy="83.33" speed="0.08" harmonicMeanSpeed="0.08" length="5.00" nVehEntered="0"/>
    <interval begin="120.00" end="130.00" id="loop_east" nVehContrib="3" flow="1080.00" occupancy="40.72" speed="3.95" harmonicMeanSpeed="3.75" length="5.00" nVehEntered="4"/>
    <interval begin="120.00" end="130.00" id="loop_north" nVehContrib="0" flow="0.00" occupancy="0.00" speed="-1.00" harmonicMeanSpeed="-1.00" length="-1.00" nVehEntered="0"/>
    <interval begin="120.00" end="130.00" id="loop_south" nVehContrib="0" flow="0.00" occupancy="0.00" speed="-1.00" harmonicMeanSpeed="-1.00" length="-1.00" nVehEntered="0"/>
    <interval begin="120.00" end="130.00" id="loop_west" nVehContrib="3" flow="1080.00" occupancy="37.97" speed="4.08" harmonicMeanSpeed="3.95" length="5.00" nVehEntered="3"/>
    <interval begin="130.00" end="140.00" id="loop_east" nVehContrib="5" flow="1800.00" occupancy="36.41" speed="6.88" harmonicMeanSpeed="6.74" length="5.00" nVehEntered="4"/>
    <interval begin="130.00" end="140.00" id="loop_north" nVehContrib="0" flow="0.00" occupancy="0.00" speed="-1.00" harmonicMeanSpeed="-1.00" length="-1.00" nVehEntered="0"/>
    <interval begin="130.00" end="140.00" id="loop_south" nVehContrib="0" flow="0.00" occupancy="0.00" speed="-1.00" harmonicMeanSpeed="-1.00" length="-1.00" nVehEntered="0"/>
    <interval begin="130.00" end="140.00" id="loop_west" nVehContrib="4" flow="1440.00" occupancy="31.52" speed="6.44" harmonicMeanSpeed="6.34" length="5.00" nVehEntered="4"/>
    <interval begin="140.00" end="150.00" id="loop_east" nVehContrib="0" flow="0.00" occupancy="0.00" speed="-1.00" harmonicMeanSpeed="-1.00" length="-1.00" nVehEntered="0"/>
    <interval begin="140.00" end="150.00" id="loop_north" nVehContrib="0" flow="0.00" occupancy="0.00" speed="-1.00" harmonicMeanSpeed="-1.00" length="-1.00" nVehEntered="0"/>
    <interval begin="140.00" end="150.00" id="loop_south" nVehContrib="0" flow="0.00" occupancy="0.00" speed="-1.00" harmonicMeanSpeed="-1.00" length="-1.00" nVehEntered="0"/>
    <interval begin="140.00" end="150.00" id="loop_west" nVehContrib="1" flow="360.00" occupancy="6.49" speed="7.70" harmonicMeanSpeed="7.70" length="5.00" nVehEntered="1"/>
    <interval begin="150.00" end="160.00" id="loop_east" nVehContrib="0" flow="0.00" occupancy="0.00" speed="-1.00" harmonicMeanSpeed="-1.00" length="-1.00" nVehEntered="0"/>
    <interval begin="150.00" end="160.00" id="loop_north" nVehContrib="0" flow="0.00" occupancy="0.00" speed="-1.00" harmonicMeanSpeed="-1.00" length="-1.00" nVehEntered="0"/>
    <interval begin="150.00" end="160.00" id="loop_south" nVehContrib="0" flow="0.00" occupancy="0.00" speed="-1.00" harmonicMeanSpeed="-1.00" length="-1.00" nVehEntered="0"/>
    <interval begin="150.00" end="160.00" id="loop_west" nVehContrib="0" flow="0.00" occupancy="0.00" speed="-1.00" harmonicMeanSpeed="-1.00" length="-1.00" nVehEntered="0"/>
    <interval begin="160.00" end="170.00" id="loop_east" nVehContrib="0" flow="0.00" occupancy="0.00" speed="-1.00" harmonicMeanSpeed="-1.00" length="-1.00" nVehEntered="0"/>
    <interval begin="160.00" end="170.00" id="loop_north" nVehContrib="0" flow="0.00" occupancy="0.00" speed="-1.00" harmonicMeanSpeed="-1.00" length="-1.00" nVehEntered="0"/>
    <interval begin="160.00" end="170.00" id="loop_south" nVehContrib="0" flow="0.00" occupancy="0.00" speed="-1.00" harmonicMeanSpeed="-1.00" length="-1.00" nVehEntered="0"/>
    <interval begin="160.00" end="170.00" id="loop_west" nVehContrib="0" flow="0.00" occupancy="0.00" speed="-1.00" harmonicMeanSpeed="-1.00" length="-1.00" nVehEntered="0"/>
    <interval begin="170.00" end="180.00" id="loop_east" nVehContrib="0" flow="0.00" occupancy="0.00" speed="-1.00" harmonicMeanSpeed="-1.00" length="-1.00" nVehEntered="0"/>
    <interval begin="170.00" end="180.00" id="loop_north" nVehContrib="0" flow="0.00" occupancy="0.00" speed="-1.00" harmonicMeanSpeed="-1.00" length="-1.00" nVehEntered="0"/>
    <interval begin="170.00" end="180.00" id="loop_south" nVehContrib="0" flow="0.00" occupancy="0.00" speed="-1.00" harmonicMeanSpeed="-1.00" length="-1.00" nVehEntered="0"/>
    <interval begin="170.00" end="180.00" id="loop_west" nVehContrib="0" flow="0.00" occupancy="0.00" speed="-1.00" harmonicMeanSpeed="-1.00" length="-1.00" nVehEntered="0"/>
    <interval begin="180.00" end="190.00" id="loop_east" nVehContrib="0" flow="0.00" occupancy="0.00" speed="-1.00" harmonicMeanSpeed="-1.00" length="-1.00" nVehEntered="0"/>
    <interval begin="180.00" end="190.00" id="loop_north" nVehContrib="0" flow="0.00" occupancy="0.00" speed="-1.00" harmonicMeanSpeed="-1.00" length="-1.00" nVehEntered="0"/>
    <interval begin="180.00" end="190.00" id="loop_south" nVehContrib="0" flow="0.00" occupancy="0.00" speed="-1.00" harmonicMeanSpeed="-1.00" length="-1.00" nVehEntered="0"/>
    <interval begin="180.00" end="190.00" id="loop_west" nVehContrib="0" flow="0.00" occupancy="0.00" speed="-1.00" harmonicMeanSpeed="-1.00" length="-1.00" nVehEntered="0"/>
    <interval begin="190.00" end="198.00" id="loop_east" nVehContrib="0" flow="0.00" occupancy="0.00" speed="-1.00" harmonicMeanSpeed="-1.00" length="-1.00" nVehEntered="0"/>
    <interval begin="190.00" end="198.00" id="loop_north" nVehContrib="0" flow="0.00" occupancy="0.00" speed="-1.00" harmonicMeanSpeed="-1.00" length="-1.00" nVehEntered="0"/>
    <interval begin="190.00" end="198.00" id="loop_south" nVehContrib="0" flow="0.00" occupancy="0.00" speed="-1.00" harmonicMeanSpeed="-1.00" length="-1.00" nVehEntered="0"/>
    <interval begin="190.00" end="198.00" id="loop_west" nVehContrib="0" flow="0.00" occupancy="0.00" speed="-1.00" harmonicMeanSpeed="-1.00" length="-1.00" nVehEntered="0"/>
</detector>
