<?xml version="1.0" encoding="UTF-8"?>

<!-- generated on 2023-12-08 18:32:48 by Eclipse SUMO GUI Version 1.19.0
<configuration xmlns:xsi="http://www.w3.org/2001/XMLSchema-instance" xsi:noNamespaceSchemaLocation="http://sumo.dlr.de/xsd/sumoConfiguration.xsd">

    <input>
        <net-file value="sumo/cross/cross.net.xml"/>
        <route-files value="sumo/cross/cross.rou.xml"/>
        <additional-files value="sumo/cross/default_logic.add.xml,sumo/cross/detectors.add.xml"/>
    </input>

    <output>
        <tripinfo-output.write-unfinished value="false"/>
    </output>

    <time>
        <begin value="0"/>
    </time>

    <report>
        <verbose value="false"/>
        <no-warnings value="true"/>
        <duration-log.statistics value="false"/>
        <no-step-log value="true"/>
    </report>

    <random_number>
        <random value="false"/>
    </random_number>

</configuration>
-->

<detector xmlns:xsi="http://www.w3.org/2001/XMLSchema-instance" xsi:noNamespaceSchemaLocation="http://sumo.dlr.de/xsd/det_e1_file.xsd">
    <interval begin="0.00" end="10.00" id="loop_east" nVehContrib="0" flow="0.00" occupancy="0.00" speed="-1.00" harmonicMeanSpeed="-1.00" length="-1.00" nVehEntered="0"/>
    <interval begin="0.00" end="10.00" id="loop_north" nVehContrib="0" flow="0.00" occupancy="0.00" speed="-1.00" harmonicMeanSpeed="-1.00" length="-1.00" nVehEntered="0"/>
    <interval begin="0.00" end="10.00" id="loop_south" nVehContrib="0" flow="0.00" occupancy="0.00" speed="-1.00" harmonicMeanSpeed="-1.00" length="-1.00" nVehEntered="0"/>
    <interval begin="0.00" end="10.00" id="loop_west" nVehContrib="0" flow="0.00" occupancy="0.00" speed="-1.00" harmonicMeanSpeed="-1.00" length="-1.00" nVehEntered="0"/>
    <interval begin="10.00" end="20.00" id="loop_east" nVehContrib="0" flow="0.00" occupancy="0.00" speed="-1.00" harmonicMeanSpeed="-1.00" length="-1.00" nVehEntered="0"/>
    <interval begin="10.00" end="20.00" id="loop_north" nVehContrib="0" flow="0.00" occupancy="0.00" speed="-1.00" harmonicMeanSpeed="-1.00" length="-1.00" nVehEntered="0"/>
    <interval begin="10.00" end="20.00" id="loop_south" nVehContrib="0" flow="0.00" occupancy="0.00" speed="-1.00" harmonicMeanSpeed="-1.00" length="-1.00" nVehEntered="0"/>
    <interval begin="10.00" end="20.00" id="loop_west" nVehContrib="0" flow="0.00" occupancy="0.00" speed="-1.00" harmonicMeanSpeed="-1.00" length="-1.00" nVehEntered="0"/>
    <interval begin="20.00" end="30.00" id="loop_east" nVehContrib="0" flow="0.00" occupancy="0.00" speed="-1.00" harmonicMeanSpeed="-1.00" length="-1.00" nVehEntered="0"/>
    <interval begin="20.00" end="30.00" id="loop_north" nVehContrib="0" flow="0.00" occupancy="0.00" speed="-1.00" harmonicMeanSpeed="-1.00" length="-1.00" nVehEntered="0"/>
    <interval begin="20.00" end="30.00" id="loop_south" nVehContrib="0" flow="0.00" occupancy="0.00" speed="-1.00" harmonicMeanSpeed="-1.00" length="-1.00" nVehEntered="0"/>
    <interval begin="20.00" end="30.00" id="loop_west" nVehContrib="0" flow="0.00" occupancy="0.00" speed="-1.00" harmonicMeanSpeed="-1.00" length="-1.00" nVehEntered="0"/>
    <interval begin="30.00" end="40.00" id="loop_east" nVehContrib="0" flow="0.00" occupancy="0.00" speed="-1.00" harmonicMeanSpeed="-1.00" length="-1.00" nVehEntered="0"/>
    <interval begin="30.00" end="40.00" id="loop_north" nVehContrib="0" flow="0.00" occupancy="0.00" speed="-1.00" harmonicMeanSpeed="-1.00" length="-1.00" nVehEntered="0"/>
    <interval begin="30.00" end="40.00" id="loop_south" nVehContrib="0" flow="0.00" occupancy="0.00" speed="-1.00" harmonicMeanSpeed="-1.00" length="-1.00" nVehEntered="0"/>
    <interval begin="30.00" end="40.00" id="loop_west" nVehContrib="0" flow="0.00" occupancy="0.00" speed="-1.00" harmonicMeanSpeed="-1.00" length="-1.00" nVehEntered="0"/>
    <interval begin="40.00" end="50.00" id="loop_east" nVehContrib="0" flow="0.00" occupancy="0.00" speed="-1.00" harmonicMeanSpeed="-1.00" length="-1.00" nVehEntered="0"/>
    <interval begin="40.00" end="50.00" id="loop_north" nVehContrib="0" flow="0.00" occupancy="0.22" speed="-1.00" harmonicMeanSpeed="-1.00" length="-1.00" nVehEntered="1"/>
    <interval begin="40.00" end="50.00" id="loop_south" nVehContrib="0" flow="0.00" occupancy="31.12" speed="-1.00" harmonicMeanSpeed="-1.00" length="-1.00" nVehEntered="1"/>
    <interval begin="40.00" end="50.00" id="loop_west" nVehContrib="2" flow="720.00" occupancy="6.36" speed="15.74" harmonicMeanSpeed="15.73" length="5.00" nVehEntered="2"/>
    <interval begin="50.00" end="60.00" id="loop_east" nVehContrib="2" flow="720.00" occupancy="7.01" speed="14.26" harmonicMeanSpeed="14.26" length="5.00" nVehEntered="2"/>
    <interval begin="50.00" end="60.00" id="loop_north" nVehContrib="0" flow="0.00" occupancy="100.00" speed="-1.00" harmonicMeanSpeed="-1.00" length="-1.00" nVehEntered="0"/>
    <interval begin="50.00" end="60.00" id="loop_south" nVehContrib="0" flow="0.00" occupancy="100.00" speed="-1.00" harmonicMeanSpeed="-1.00" length="-1.00" nVehEntered="0"/>
    <interval begin="50.00" end="60.00" id="loop_west" nVehContrib="2" flow="720.00" occupancy="7.34" speed="13.66" harmonicMeanSpeed="13.63" length="5.00" nVehEntered="2"/>
    <interval begin="60.00" end="70.00" id="loop_east" nVehContrib="0" flow="0.00" occupancy="64.26" speed="-1.00" harmonicMeanSpeed="-1.00" length="-1.00" nVehEntered="1"/>
    <interval begin="60.00" end="70.00" id="loop_north" nVehContrib="2" flow="720.00" occupancy="62.66" speed="1.72" harmonicMeanSpeed="0.61" length="5.00" nVehEntered="1"/>
    <interval begin="60.00" end="70.00" id="loop_south" nVehContrib="2" flow="720.00" occupancy="63.22" speed="1.63" harmonicMeanSpeed="0.51" length="5.00" nVehEntered="1"/>
    <interval begin="60.00" end="70.00" id="loop_west" nVehContrib="0" flow="0.00" occupancy="46.21" speed="-1.00" harmonicMeanSpeed="-1.00" length="-1.00" nVehEntered="1"/>
    <interval begin="70.00" end="80.00" id="loop_east" nVehContrib="0" flow="0.00" occupancy="100.00" speed="-1.00" harmonicMeanSpeed="-1.00" length="-1.00" nVehEntered="0"/>
    <interval begin="70.00" end="80.00" id="loop_north" nVehContrib="4" flow="1440.00" occupancy="38.42" speed="5.38" harmonicMeanSpeed="5.21" length="5.00" nVehEntered="4"/>
    <interval begin="70.00" end="80.00" id="loop_south" nVehContrib="3" flow="1080.00" occupancy="24.21" speed="7.50" harmonicMeanSpeed="6.20" length="5.00" nVehEntered="3"/>
    <interval begin="70.00" end="80.00" id="loop_west" nVehContrib="0" flow="0.00" occupancy="100.00" speed="-1.00" harmonicMeanSpeed="-1.00" length="-1.00" nVehEntered="0"/>
    <interval begin="80.00" end="90.00" id="loop_east" nVehContrib="0" flow="0.00" occupancy="100.00" speed="-1.00" harmonicMeanSpeed="-1.00" length="-1.00" nVehEntered="0"/>
    <interval begin="80.00" end="90.00" id="loop_north" nVehContrib="2" flow="720.00" occupancy="8.63" speed="12.09" harmonicMeanSpeed="11.58" length="5.00" nVehEntered="2"/>
    <interval begin="80.00" end="90.00" id="loop_south" nVehContrib="2" flow="720.00" occupancy="7.08" speed="14.12" harmonicMeanSpeed="14.12" length="5.00" nVehEntered="2"/>
    <interval begin="80.00" end="90.00" id="loop_west" nVehContrib="0" flow="0.00" occupancy="100.00" speed="-1.00" harmonicMeanSpeed="-1.00" length="-1.00" nVehEntered="0"/>
    <interval begin="90.00" end="100.00" id="loop_east" nVehContrib="0" flow="0.00" occupancy="100.00" speed="-1.00" harmonicMeanSpeed="-1.00" length="-1.00" nVehEntered="0"/>
    <interval begin="90.00" end="100.00" id="loop_north" nVehContrib="2" flow="720.00" occupancy="6.49" speed="15.47" harmonicMeanSpeed="15.42" length="5.00" nVehEntered="2"/>
    <interval begin="90.00" end="100.00" id="loop_south" nVehContrib="2" flow="720.00" occupancy="6.61" speed="15.13" harmonicMeanSpeed="15.12" length="5.00" nVehEntered="2"/>
    <interval begin="90.00" end="100.00" id="loop_west" nVehContrib="0" flow="0.00" occupancy="100.00" speed="-1.00" harmonicMeanSpeed="-1.00" length="-1.00" nVehEntered="0"/>
    <interval begin="100.00" end="110.00" id="loop_east" nVehContrib="0" flow="0.00" occupancy="100.00" speed="-1.00" harmonicMeanSpeed="-1.00" length="-1.00" nVehEntered="0"/>
    <interval begin="100.00" end="110.00" id="loop_north" nVehContrib="0" flow="0.00" occupancy="0.00" speed="-1.00" harmonicMeanSpeed="-1.00" length="-1.00" nVehEntered="0"/>
    <interval begin="100.00" end="110.00" id="loop_south" nVehContrib="1" flow="360.00" occupancy="3.73" speed="13.41" harmonicMeanSpeed="13.41" length="5.00" nVehEntered="1"/>
    <interval begin="100.00" end="110.00" id="loop_west" nVehContrib="0" flow="0.00" occupancy="100.00" speed="-1.00" harmonicMeanSpeed="-1.00" length="-1.00" nVehEntered="0"/>
    <interval begin="110.00" end="120.00" id="loop_east" nVehContrib="3" flow="1080.00" occupancy="41.24" speed="2.55" harmonicMeanSpeed="0.30" length="5.00" nVehEntered="2"/>
    <interval begin="110.00" end="120.00" id="loop_north" nVehContrib="0" flow="0.00" occupancy="0.00" speed="-1.00" harmonicMeanSpeed="-1.00" length="-1.00" nVehEntered="0"/>
    <interval begin="110.00" end="120.00" id="loop_south" nVehContrib="0" flow="0.00" occupancy="0.00" speed="-1.00" harmonicMeanSpeed="-1.00" length="-1.00" nVehEntered="0"/>
    <interval begin="110.00" end="120.00" id="loop_west" nVehContrib="3" flow="1080.00" occupancy="44.31" speed="2.50" harmonicMeanSpeed="0.31" length="5.00" nVehEntered="2"/>
    <interval begin="120.00" end="130.00" id="loop_east" nVehContrib="4" flow="1440.00" occupancy="32.37" speed="6.28" harmonicMeanSpeed="6.18" length="5.00" nVehEntered="4"/>
    <interval begin="120.00" end="130.00" id="loop_north" nVehContrib="0" flow="0.00" occupancy="0.00" speed="-1.00" harmonicMeanSpeed="-1.00" length="-1.00" nVehEntered="0"/>
    <interval begin="120.00" end="130.00" id="loop_south" nVehContrib="0" flow="0.00" occupancy="0.00" speed="-1.00" harmonicMeanSpeed="-1.00" length="-1.00" nVehEntered="0"/>
    <interval begin="120.00" end="130.00" id="loop_west" nVehContrib="3" flow="1080.00" occupancy="26.42" speed="5.72" harmonicMeanSpeed="5.68" length="5.00" nVehEntered="3"/>
    <interval begin="130.00" end="140.00" id="loop_east" nVehContrib="1" flow="360.00" occupancy="6.34" speed="7.88" harmonicMeanSpeed="7.88" length="5.00" nVehEntered="1"/>
    <interval begin="130.00" end="140.00" id="loop_north" nVehContrib="0" flow="0.00" occupancy="0.00" speed="-1.00" harmonicMeanSpeed="-1.00" length="-1.00" nVehEntered="0"/>
    <interval begin="130.00" end="140.00" id="loop_south" nVehContrib="0" flow="0.00" occupancy="0.00" speed="-1.00" harmonicMeanSpeed="-1.00" length="-1.00" nVehEntered="0"/>
    <interval begin="130.00" end="140.00" id="loop_west" nVehContrib="0" flow="0.00" occupancy="0.00" speed="-1.00" harmonicMeanSpeed="-1.00" length="-1.00" nVehEntered="0"/>
    <interval begin="140.00" end="150.00" id="loop_east" nVehContrib="0" flow="0.00" occupancy="0.00" speed="-1.00" harmonicMeanSpeed="-1.00" length="-1.00" nVehEntered="0"/>
    <interval begin="140.00" end="150.00" id="loop_north" nVehContrib="0" flow="0.00" occupancy="0.00" speed="-1.00" harmonicMeanSpeed="-1.00" length="-1.00" nVehEntered="0"/>
    <interval begin="140.00" end="150.00" id="loop_south" nVehContrib="0" flow="0.00" occupancy="0.00" speed="-1.00" harmonicMeanSpeed="-1.00" length="-1.00" nVehEntered="0"/>
    <interval begin="140.00" end="150.00" id="loop_west" nVehContrib="0" flow="0.00" occupancy="0.00" speed="-1.00" harmonicMeanSpeed="-1.00" length="-1.00" nVehEntered="0"/>
    <interval begin="150.00" end="160.00" id="loop_east" nVehContrib="0" flow="0.00" occupancy="0.00" speed="-1.00" harmonicMeanSpeed="-1.00" length="-1.00" nVehEntered="0"/>
    <interval begin="150.00" end="160.00" id="loop_north" nVehContrib="0" flow="0.00" occupancy="0.00" speed="-1.00" harmonicMeanSpeed="-1.00" length="-1.00" nVehEntered="0"/>
    <interval begin="150.00" end="160.00" id="loop_south" nVehContrib="0" flow="0.00" occupancy="0.00" speed="-1.00" harmonicMeanSpeed="-1.00" length="-1.00" nVehEntered="0"/>
    <interval begin="150.00" end="160.00" id="loop_west" nVehContrib="0" flow="0.00" occupancy="0.00" speed="-1.00" harmonicMeanSpeed="-1.00" length="-1.00" nVehEntered="0"/>
    <interval begin="160.00" end="170.00" id="loop_east" nVehContrib="0" flow="0.00" occupancy="0.00" speed="-1.00" harmonicMeanSpeed="-1.00" length="-1.00" nVehEntered="0"/>
    <interval begin="160.00" end="170.00" id="loop_north" nVehContrib="0" flow="0.00" occupancy="0.00" speed="-1.00" harmonicMeanSpeed="-1.00" length="-1.00" nVehEntered="0"/>
    <interval begin="160.00" end="170.00" id="loop_south" nVehContrib="0" flow="0.00" occupancy="0.00" speed="-1.00" harmonicMeanSpeed="-1.00" length="-1.00" nVehEntered="0"/>
    <interval begin="160.00" end="170.00" id="loop_west" nVehContrib="0" flow="0.00" occupancy="0.00" speed="-1.00" harmonicMeanSpeed="-1.00" length="-1.00" nVehEntered="0"/>
    <interval begin="170.00" end="180.00" id="loop_east" nVehContrib="0" flow="0.00" occupancy="0.00" speed="-1.00" harmonicMeanSpeed="-1.00" length="-1.00" nVehEntered="0"/>
    <interval begin="170.00" end="180.00" id="loop_north" nVehContrib="0" flow="0.00" occupancy="0.00" speed="-1.00" harmonicMeanSpeed="-1.00" length="-1.00" nVehEntered="0"/>
    <interval begin="170.00" end="180.00" id="loop_south" nVehContrib="0" flow="0.00" occupancy="0.00" speed="-1.00" harmonicMeanSpeed="-1.00" length="-1.00" nVehEntered="0"/>
    <interval begin="170.00" end="180.00" id="loop_west" nVehContrib="0" flow="0.00" occupancy="0.00" speed="-1.00" harmonicMeanSpeed="-1.00" length="-1.00" nVehEntered="0"/>
    <interval begin="180.00" end="185.00" id="loop_east" nVehContrib="0" flow="0.00" occupancy="0.00" speed="-1.00" harmonicMeanSpeed="-1.00" length="-1.00" nVehEntered="0"/>
    <interval begin="180.00" end="185.00" id="loop_north" nVehContrib="0" flow="0.00" occupancy="0.00" speed="-1.00" harmonicMeanSpeed="-1.00" length="-1.00" nVehEntered="0"/>
    <interval begin="180.00" end="185.00" id="loop_south" nVehContrib="0" flow="0.00" occupancy="0.00" speed="-1.00" harmonicMeanSpeed="-1.00" length="-1.00" nVehEntered="0"/>
    <interval begin="180.00" end="185.00" id="loop_west" nVehContrib="0" flow="0.00" occupancy="0.00" speed="-1.00" harmonicMeanSpeed="-1.00" length="-1.00" nVehEntered="0"/>
</detector>
